! Touchstone data
! Created: 02-Feb-2025 by IdEM 2024 (2024.1.0)
!
!*******************************************************
! COMMENTS
!*******************************************************
!
!  TOUCHSTONE file generated by CST MICROWAVE STUDIO
!  Date and time: Sun Feb  2 22:12:49 2025
!  Project name: MMA_UnitCell.cst
!  Parameters = {a=0.5; d=0.035; h=9; p=3; phi=0; r_1=2; r_2=2.7; s=0.2; t=0.2; theta=0; w=12}
!  Header version: 2024
!  Port assignment regex: !\s*Touchstone port\s*([0-9]+)\s*=\s*(CST MWS port|CST DES external port|CST DES block port)\s*(.+)\s* \(\"(.*)\"\)(\s*mode\s*([0-9]+))?.*
!  Touchstone port assignment:
!  Touchstone port 1 = CST MWS port Zmin ("") mode 1
!  Touchstone port 2 = CST MWS port Zmin ("") mode 2
!  Touchstone port 3 = CST MWS port Zmax ("") mode 1
!  Touchstone port 4 = CST MWS port Zmax ("") mode 2
!  S-Parameters are not renormalized. Each port impedance will be approximated by the real part at minimum frequency. The values are described via the [Reference] keyword.
!  Default impedance is overridden by [Reference]
!
!*******************************************************
!
# GHz S MA R 376.73

!
                 2.7                    0                    0                    0                    0                    0                    0                    0                    0
                   0                    0                    0                    0                    0                    0                    0                    0
                   0                    0                    0                    0   0.4333218497468116    34.92612201464953 0.0001953141677982801    5.724714279770406
                   0                    0                    0                    0 0.0001949994228349412    5.841626725528822   0.4350346379282405    34.77728242780449

!
                2.71                    0                    0                    0                    0                5e-66                  180                5e-66                  180
                   0                    0                    0                    0                5e-66                  180                5e-66                  180
                   0                    0                    0                    0   0.4284185749758471    34.51709049471572 0.0001958180824752153    4.740874157201415
                   0                    0                    0                    0 0.0001954911325230335    4.855166346804828   0.4301214892214595    34.36382696400787

!
                2.72                    0                    0                    0                    0                5e-66                  180                5e-66                  180
                   0                    0                    0                    0                5e-66                  180                5e-66                  180
                   0                    0                    0                    0   0.4235376464986734    34.11385392817117 0.0001963103525006173    3.761526720651018
                   0                    0                    0                    0 0.0001959728199724012    3.873030599465757   0.4252302406976811    33.95609115840007

!
                2.73                    0                    0                    0                    0                5e-66                  180                5e-66                  180
                   0                    0                    0                    0                5e-66                  180                5e-66                  180
                   0                    0                    0                    0   0.4186797236582731    33.71650056744857 0.0001967909288196585    2.786674136073867
                   0                    0                    0                    0 0.0001964443582484851     2.89524115026733   0.4203615541523152    33.55416258626354

!
                2.74                    0                    0                    0                    0                5e-66                  180                5e-66                  180
                   0                    0                    0                    0                5e-66                  180                5e-66                  180
                   0                    0                    0                    0   0.4138454493222072    33.32512039783617 0.0001972597705359473     1.81631882388606
                   0                    0                    0                    0 0.0001969056339475505    1.921818839651485   0.4155160765276765    33.15813031904215

!
                2.75                    0                    0                    0                    0                5e-66                  180                5e-66                  180
                   0                    0                    0                    0                5e-66                  180                5e-66                  180
                   0                    0                    0                    0   0.4090354510337426    32.93980449709048 0.000197716848694241   0.8504634159201554
                   0                    0                    0                    0 0.0001973565459391563   0.9527836098833514   0.4106944402637013    32.76808486087528

!
                2.76                    0                    0                    0                    0                5e-66                  180                5e-66                  180
                   0                    0                    0                    0                5e-66                  180                5e-66                  180
                   0                    0                    0                    0   0.4042503420847775    32.56064588845317 0.0001981621451287385  -0.1108893003384747
                   0                    0                    0                    0 0.0001977970032271674 -0.01184547557866499   0.4058972638419087     32.3841183957182

!
                2.77                    0                    0                    0                    0                5e-66                  180                5e-66                  180
                   0                    0                    0                    0                5e-66                  180                5e-66                  180
                   0                    0                    0                    0    0.399490721727265    32.18773898574062 0.0001985956523974647   -1.067736453355731
                   0                    0                    0                    0 0.0001982269288897591  -0.9720502679085585    0.401125149874606    32.00632425187268

!
                2.78                    0                    0                    0                    0                5e-66                  180                5e-66                  180
                   0                    0                    0                    0                5e-66                  180                5e-66                  180
                   0                    0                    0                    0   0.3947571766359042    31.82118009195567 0.0001990173717971729   -2.020075142240363
                   0                    0                    0                    0 0.0001986462571041507   -1.927813529412497   0.3963786884097864    31.63479806807607

!
                2.79                    0                    0                    0                    0                5e-66                  180                5e-66                  180
                   0                    0                    0                    0                5e-66                  180                5e-66                  180
                   0                    0                    0                    0   0.3900502780113864    31.46106693925666 0.0001994273174519564   -2.967902486610503
                   0                    0                    0                    0 0.0001990549342470702   -2.879118934362769   0.3916584553144613    31.26963655689687

!
                 2.8                    0                    0                    0                    0                5e-66                  180                5e-66                  180
                   0                    0                    0                    0                5e-66                  180                5e-66                  180
                   0                    0                    0                    0   0.3853705839264636    31.10749945171458 0.0001998255094626543   -3.911215674739694
                   0                    0                    0                    0 0.000199452917074638    -3.82595112134977   0.3869650119588324    30.91093901238251

!
                2.81                    0                    0                    0                    0                5e-66                  180                5e-66                  180
                   0                    0                    0                    0                5e-66                  180                5e-66                  180
                   0                    0                    0                    0   0.3807186385468037    30.76057925924046 0.000200211981141932   -4.850012050131408
                   0                    0                    0                    0 0.0001998401729515614   -4.768295640887014   0.3822989057994995    30.55880602311736

!
                2.82                    0                    0                    0                    0                5e-66                  180                5e-66                  180
                   0                    0                    0                    0                5e-66                  180                5e-66                  180
                   0                    0                    0                    0   0.3760949737605709     30.4204103762554 0.0002005867712730798   -5.784289129680062
                   0                    0                    0                    0 0.0002002166811747661   -5.706139042022625   0.3776606749812644    30.21334057273861

!
                2.83                    0                    0                    0                    0                5e-66                  180                5e-66                  180
                   0                    0                    0                    0                5e-66                  180                5e-66                  180
                   0                    0                    0                    0   0.3715001104208877     30.0870983519547 0.0002009499304514817   -6.714044641287686
                   0                    0                    0                    0 0.0002005824303376593   -6.639468883460357    0.373050839821033     29.8746473656946

!
                2.84                    0                    0                    0                    0                5e-66                  180                5e-66                  180
                   0                    0                    0                    0                5e-66                  180                5e-66                  180
                   0                    0                    0                    0   0.3669345528062196    29.76075124224064 0.0002013015154729949   -7.639276651505498
                   0                    0                    0                    0 0.0002009374226864212   -7.568273536660724   0.3684699106316661    29.54283366497065

!
                2.85                    0                    0                    0                    0                5e-66                  180                5e-66                  180
                   0                    0                    0                    0                5e-66                  180                5e-66                  180
                   0                    0                    0                    0   0.3623987972493487    29.44147951932333 0.0002016415937101858    -8.55998343911806
                   0                    0                    0                    0 0.0002012816656662186   -8.492542562314046   0.3639183863499237    29.21800868016407

!
                2.86                    0                    0                    0                    0                4e-66                  180                4e-66                  180
                   0                    0                    0                    0                4e-66                  180                4e-66                  180
                   0                    0                    0                    0   0.3578933249201097    29.12939541740197 0.0002019702376231397    -9.47616376142744
                   0                    0                    0                    0 0.0002016151803403014   -9.412266374466778   0.3593967531523559    28.90028418607904

!
                2.87                    0                    0                    0                    0                4e-66                  180                4e-66                  180
                   0                    0                    0                    0                4e-66                  180                4e-66                  180
                   0                    0                    0                    0   0.3534186086481861    28.82461427739068 0.0002022875311383229    -10.3878165581393
                   0                    0                    0                    0 0.0002019379949804381   -10.32743648791017   0.3549054840254853    28.58977416289847

!
                2.88                    0                    0                    0                    0                4e-66                  180                4e-66                  180
                   0                    0                    0                    0                4e-66                  180                4e-66                  180
                   0                    0                    0                    0   0.3489751090879178    28.52725359084594 0.0002025935613513398    -11.2949414997547
                   0                    0                    0                    0 0.0002022501475750675   -11.23804537488083   0.3504450421058007    28.28659519281354

!
                2.89                    0                    0                    0                    0                4e-66                  180                4e-66                  180
                   0                    0                    0                    0                4e-66                  180                4e-66                  180
                   0                    0                    0                    0   0.3445632753079793     28.2374332677414 0.0002028884248276314   -12.19753848704402
                   0                    0                    0                    0 0.0002025516854301957   -12.14408650776437   0.3460158820884142    27.99086668985607

!
                 2.9                    0                    0                    0                    0                4e-66                  180                4e-66                  180
                   0                    0                    0                    0                4e-66                  180                4e-66                  180
                   0                    0                    0                    0   0.3401835471188486    27.95527614678026 0.0002031722252696816   -13.09560793624157
                   0                    0                    0                    0 0.0002028426637612774   -13.04555438392762   0.3416184451949064     27.7027101996043

!
                2.91                    0                    0                    0                    0                4e-66                  180                4e-66                  180
                   0                    0                    0                    0                4e-66                  180                4e-66                  180
                   0                    0                    0                    0   0.3358363554257958     27.6809079524377 0.0002034450701004052   -13.98915093367363
                   0                    0                    0                    0 0.0002031231472912855   -13.94244445674279   0.3372531633563506    27.42225049432912

!
                2.92                    0                    0                    0                    0                4e-66                  180                4e-66                  180
                   0                    0                    0                    0                4e-66                  180                4e-66                  180
                   0                    0                    0                    0   0.3315221198426231    27.41445671503883 0.0002037070758709463   -14.87816889908665
                   0                    0                    0                    0 0.0002033932059519991   -14.83475336684235   0.3329204590451885    27.14961501205853

!
                2.93                    0                    0                    0                    0                4e-66                  180                4e-66                  180
                   0                    0                    0                    0                4e-66                  180                4e-66                  180
                   0                    0                    0                    0   0.3272412527446236    27.15605392233001 0.0002039583639639546   -15.76266391677927
                   0                    0                    0                    0 0.0002036529193615207   -15.72247861572651    0.328620746116071    26.88493433999556

!
                2.94                    0                    0                    0                    0                4e-66                  180                4e-66                  180
                   0                    0                    0                    0                4e-66                  180                4e-66                  180
                   0                    0                    0                    0   0.3229941554498751    26.90583388523087 0.0002041990600948402   -16.64263870815682
                   0                    0                    0                    0 0.0002039023744987319   -16.60561870532941   0.3243544287524893    26.62834171261461

!
                2.95                    0                    0                    0                    0                4e-66                  180                4e-66                  180
                   0                    0                    0                    0                4e-66                  180                4e-66                  180
                   0                    0                    0                    0   0.3187812243304866    26.66393375385632 0.0002044292957800565   -17.51809651766427
                   0                    0                    0                    0 0.0002041416643191014   -17.48417318932108   0.3201219044723171    26.37997390652591

!
                2.96                    0                    0                    0                    0                4e-66                  180                4e-66                  180
                   0                    0                    0                    0                4e-66                  180                4e-66                  180
                   0                    0                    0                    0   0.3146028470541563    26.43049404642803 0.0002046492080007524   -18.38904126010301
                   0                    0                    0                    0 0.0002043708874201084   -18.35814274163407    0.315923560797046    26.13997034601812

!
                2.97                    0                    0                    0                    0                4e-66                  180                4e-66                  180
                   0                    0                    0                    0                4e-66                  180                4e-66                  180
                   0                    0                    0                    0   0.3104594018981406    26.20565829747866 0.0002048589376169071   -19.25547749217824
                   0                    0                    0                    0 0.000204590151420299   -19.22752880158748   0.3117597799504091    25.90847427304584

!
                2.98                    0                    0                    0                    0                4e-66                  180                4e-66                  180
                   0                    0                    0                    0                4e-66                  180                4e-66                  180
                   0                    0                    0                    0   0.3063512628593271    25.98957360416621 0.0002050586307344536   -20.11741025609373
                   0                    0                    0                    0 0.000204799567676069   -20.09233393875166   0.3076309355106577    25.68563184327757

!
                2.99                    0                    0                    0                    0                4e-66                  180                4e-66                  180
                   0                    0                    0                    0                4e-66                  180                4e-66                  180
                   0                    0                    0                    0   0.3022787980655853    25.78238994826523 0.0002052484365010052   -20.97484546034624
                   0                    0                    0                    0 0.0002049992528206113   -20.95256176940926   0.3035373966087768    25.47159276209398

!
                   3                    0                    0                    0                    0                    0                    0                    0                    0
                   0                    0                    0                    0                    0                    0                    0                    0
                   0                    0                    0                    0   0.2982423671987775     25.5842612540168 0.0002054285072559603   -21.82778962764494
                   0                    0                    0                    0 0.0002051893310181516   -21.80821661751392   0.2994795236179883    25.26651026744319

!
                3.01                    0                    0                    0                    0                4e-66                  180                4e-66                  180
                   0                    0                    0                    0                4e-66                  180                4e-66                  180
                   0                    0                    0                    0   0.2942423279574131    25.39534437928578 0.0002055990000571029    -22.6762499076672
                   0                    0                    0                    0 0.0002053699289230886   -22.65930412590538   0.2954576736830776    25.07054105344715

!
                3.02                    0                    0                    0                    0                4e-66                  180                4e-66                  180
                   0                    0                    0                    0                4e-66                  180                4e-66                  180
                   0                    0                    0                    0      0.2902790307477    25.21580002129189 0.0002057600739785115   -23.52023415256066
                   0                    0                    0                    0 0.0002055411786226763   -23.50583069611337   0.2914721986335808    24.88384525131447

!
                3.03                    0                    0                    0                    0                4e-66                  180                4e-66                  180
                   0                    0                    0                    0                4e-66                  180                4e-66                  180
                   0                    0                    0                    0   0.2863528215439866    25.04579201723118 0.0002059118924000743   -24.35975075139488
                   0                    0                    0                    0 0.0002057032181952476   -24.34780354877602   0.2875234445583607    24.70658712089461

!
                3.04                    0                    0                    0                    0                4e-66                  180                4e-66                  180
                   0                    0                    0                    0                4e-66                  180                4e-66                  180
                   0                    0                    0                    0   0.2824640446058329    24.88548795424369 0.0002060546196328381   -25.19480903212845
                   0                    0                    0                    0 0.0002058561871685105   -25.18523102361587   0.2836117547661516    24.53893392106781

!
                3.05                    0                    0                    0                    0                4e-66                  180                4e-66                  180
                   0                    0                    0                    0                4e-66                  180                4e-66                  180
                   0                    0                    0                    0   0.2786130398939644    24.73505897332429 0.0002061884227525302   -26.02541884957537
                   0                    0                    0                    0 0.0002060002307790783   -26.01812225410492   0.2797374688529484    24.38105686099782

!
                3.06                    0                    0                    0                    0                4e-66                  180                4e-66                  180
                   0                    0                    0                    0                4e-66                  180                4e-66                  180
                   0                    0                    0                    0   0.2748001422347782    24.59467983585315 0.0002063134719993155   -26.85159066733334
                   0                    0                    0                    0 0.0002061354971456314   -26.84648723635139   0.2759009236807742    24.23313102571984

!
                3.07                    0                    0                    0                    0                4e-66                  180                4e-66                  180
                   0                    0                    0                    0                4e-66                  180                4e-66                  180
                   0                    0                    0                    0   0.2710256885791835    24.46452867398484 0.0002064299389565554   -27.67333565336891
                   0                    0                    0                    0 0.0002062621359075293   -27.67033714500027   0.2721024521220957    24.09533527326464

!
                3.08                    0                    0                    0                    0                4e-66                  180                4e-66                  180
                   0                    0                    0                    0                4e-66                  180                4e-66                  180
                   0                    0                    0                    0   0.2672900108618029    24.34478719215494 0.0002065379948454322   -28.49066587894383
                   0                    0                    0                    0 0.0002063803016999379   -28.48968362980411    0.268342386372385    23.96785168051722

!
                3.09                    0                    0                    0                    0                4e-66                  180                4e-66                  180
                   0                    0                    0                    0                4e-66                  180                4e-66                  180
                   0                    0                    0                    0   0.2635934400066448    24.23564095942395 0.0002066378151161085   -29.30359369089263
                   0                    0                    0                    0 0.0002064901519261682   -29.30453931074034   0.2646210573089113    23.85086674771291

!
                 3.1                    0                    0                    0                    0                4e-66                  180                4e-66                  180
                   0                    0                    0                    0                4e-66                  180                4e-66                  180
                   0                    0                    0                    0   0.2599363066366762      24.137278123088 0.0002067295750205907   -30.11213230786377
                   0                    0                    0                    0 0.0002065918435243599    -30.1149177831421   0.2609387943191909    23.74457024614046

!
                3.11                    0                    0                    0                    0                4e-66                  180                4e-66                  180