! Touchstone data
! Created: 02-Feb-2025 by IdEM 2024 (2024.1.0)
!
!*******************************************************
! COMMENTS
!*******************************************************
!
!  TOUCHSTONE file generated by CST MICROWAVE STUDIO
!  Date and time: Sun Feb  2 22:12:49 2025
!  Project name: MMA_UnitCell.cst
!  Parameters = {a=0.5; d=0.035; h=9; p=3; phi=0; r_1=2; r_2=2.7; s=0.2; t=0.2; theta=0; w=12}
!  Header version: 2024
!  Port assignment regex: !\s*Touchstone port\s*([0-9]+)\s*=\s*(CST MWS port|CST DES external port|CST DES block port)\s*(.+)\s* \(\"(.*)\"\)(\s*mode\s*([0-9]+))?.*
!  Touchstone port assignment:
!  Touchstone port 1 = CST MWS port Zmin ("") mode 1
!  Touchstone port 2 = CST MWS port Zmin ("") mode 2
!  Touchstone port 3 = CST MWS port Zmax ("") mode 1
!  Touchstone port 4 = CST MWS port Zmax ("") mode 2
!  S-Parameters are not renormalized. Each port impedance will be approximated by the real part at minimum frequency. The values are described via the [Reference] keyword.
!  Default impedance is overridden by [Reference]
!
!*******************************************************
!
# GHz Y MA R 1

!
                 2.7  0.00265442093807236                    0                    0                    0                    0                    0                    0                    0
                   0                    0  0.00265442093807236                    0                    0                    0                    0                    0
                   0                    0                    0                    0 0.001330888877328526   -31.41962634710668 5.454132054727662e-07    164.9914101925358
                   0                    0                    0                    0 5.445342827540703e-07    165.1083226382942 0.001325291363736681   -31.47183258055111

!
                2.71  0.00265442093807236                    0                    0                    0 1.930769318802666e-68   -10.17140969562557 1.927929194704793e-68   -10.15695137168115
                   0                    0  0.00265442093807236                    0 1.930769318802666e-68   -10.17140969562557 1.927929194704793e-68   -10.15695137168115
                   0                    0                    0                    0 0.001334440217480692   -30.73897548304847 5.493605407058159e-07    164.4109886130633
                   0                    0                    0                    0 5.484432944523342e-07    164.5252808026667 0.001328781708120023   -30.78577730580708

!
                2.72  0.00265442093807236                    0                    0                    0  1.9353011805551e-68   -9.973590362180605 1.93245112660574e-68   -9.957844618628593
                   0                    0  0.00265442093807236                    0  1.9353011805551e-68   -9.973590362180605 1.93245112660574e-68   -9.957844618628593
                   0                    0                    0                    0  0.00133830696813427   -30.06751746934975 5.533296066762562e-07    163.8283373740985
                   0                    0                    0                    0 5.52378221592896e-07    163.9398412529133 0.001332590307959062   -30.10886708245817

!
                2.73  0.00265442093807236                    0                    0                    0 1.93989332561368e-68   -9.779137949568653 1.937034069231184e-68   -9.762100719115656
                   0                    0  0.00265442093807236                    0 1.93989332561368e-68   -9.779137949568653 1.937034069231184e-68   -9.762100719115656
                   0                    0                    0                    0 0.001342482244020061   -29.40559708120155 5.573194603765752e-07    163.2434497233566
                   0                    0                    0                    0 5.563379592226996e-07    163.3520167375501 0.001336710319419484    -29.4414562054337

!
                2.74  0.00265442093807236                    0                    0                    0 1.944544170163504e-68   -9.588055709710376 1.94167644772913e-68   -9.569723474272367
                   0                    0  0.00265442093807236                    0 1.944544170163504e-68   -9.588055709710376 1.94167644772913e-68   -9.569723474272367
                   0                    0                    0                    0 0.001346959017982764   -28.75353552626399 5.613291503327834e-07    162.6563210913408
                   0                    0                    0                    0 5.60321407143554e-07    162.7618211071063 0.001341134744243998   -28.78387520881029

!
                2.75  0.00265442093807236                    0                    0                    0 1.949252123245907e-68   -9.400345776559686 1.946376680185057e-68    -9.38071567849404
                   0                    0  0.00265442093807236                    0 1.949252123245907e-68   -9.400345776559686 1.946376680185057e-68    -9.38071567849404
                   0                    0                    0                    0 0.001351730125226261   -28.11162990615152 5.653577264999193e-07    162.0669492463458
                   0                    0                    0                    0 5.643274655595306e-07     162.169269440309 0.001345856443810146   -28.13643058438089

!
                2.76  0.00265442093807236                    0                    0                    0 1.954015589064406e-68   -9.216009408751882 1.951133178018421e-68   -9.195079183221534
                   0                    0  0.00265442093807236                    0 1.954015589064406e-68   -9.216009408751882 1.951133178018421e-68   -9.195079183221534
                   0                    0                    0                    0 0.001356788288664255   -27.48015375285423 5.694042384545361e-07    161.4753339321607
                   0                    0                    0                    0 5.683550302606258e-07    161.5743777569205 0.001350868157018866   -27.49940484826032

!
                2.77  0.00265442093807236                    0                    0                    0 1.958832964552912e-68    -9.03504682528024 1.955944346499791e-68   -9.012814704458751
                   0                    0  0.00265442093807236                    0 1.958832964552912e-68    -9.03504682528024 1.955944346499791e-68   -9.012814704458751
                   0                    0                    0                    0 0.001362126125893034   -26.85935671095238 5.734677353463491e-07    160.8814771532093
                   0                    0                    0                    0 5.724030039064599e-07    160.9771633386565 0.001356162512644656   -26.87305603066319

!
                2.78  0.00265442093807236                    0                    0                    0 1.963702639647812e-68   -8.857457352935759 1.960808585265594e-68    -8.83392218384885
                   0                    0  0.00265442093807236                    0 1.963702639647812e-68   -8.857457352935759 1.960808585265594e-68    -8.83392218384885
                   0                    0                    0                    0 0.001367736167722149   -26.24946510781662 5.775472610926138e-07    160.2853826112173
                   0                    0                    0                    0 5.764702884013824e-07    160.3776442240452 0.001361732053226814   -26.25761880535749

!
                2.79  0.00265442093807236                    0                    0                    0 1.968622999552591e-68   -8.683239239897546 1.965724285735968e-68   -8.658400409802153
                   0                    0  0.00265442093807236                    0 1.968622999552591e-68   -8.683239239897546 1.965724285735968e-68   -8.658400409802153
                   0                    0                    0                    0 0.001373610873032082   -25.65068166870062 5.816418668391461e-07    159.6870562205846
                   0                    0                    0                    0 5.805557886366363e-07    159.7758397728323 0.001367569236855256   -25.65330377746385

!
                 2.8  0.00265442093807236                    0                    0                    0 1.973592424912886e-68   -8.512389886854725 1.97068983771181e-68   -8.486247406423926
                   0                    0  0.00265442093807236                    0 1.973592424912886e-68   -8.512389886854725 1.97068983771181e-68   -8.486247406423926
                   0                    0                    0                    0 0.001379742647877219   -25.06318653146693 5.857505938531182e-07    159.0865054400685
                   0                    0                    0                    0 5.846584099115755e-07    159.1717699934585 0.001373666472050415   -25.06029875103696

!
                2.81  0.00265442093807236                    0                    0                    0 1.978609291275157e-68   -8.344905689325964 1.975703623921478e-68   -8.317460081981235
                   0                    0  0.00265442093807236                    0 1.978609291275157e-68   -8.344905689325964 1.975703623921478e-68   -8.317460081981235
                   0                    0                    0                    0 0.001386123854610776   -24.48713729999988 5.898724935981414e-07    158.4837396953559
                   0                    0                    0                    0 5.887770575351086e-07    158.5654561046003 0.001380016113936027   -24.47876835903765

!
                2.82  0.00265442093807236                    0                    0                    0 1.983671969800673e-68   -8.180782229579377 1.980764018291598e-68   -8.152034583074565
                   0                    0  0.00265442093807236                    0 1.983671969800673e-68   -8.180782229579377 1.980764018291598e-68   -8.152034583074565
                   0                    0                    0                    0 0.001392746829799992   -23.92267010327008 5.940066055811014e-07    157.8787698146914
                   0                    0                    0                    0 5.929106411679789e-07    157.9569199023488 0.001386610480970933    -23.9088556085305

!
                2.83  0.00265442093807236                    0                    0                    0 1.988778822734229e-68   -8.020014059340417 1.985869395350806e-68   -7.989965963610663
                   0                    0  0.00265442093807236                    0 1.988778822734229e-68   -8.020014059340417 1.985869395350806e-68   -7.989965963610663
                   0                    0                    0                    0 0.001399603883405201   -23.36989971584762 5.981519782266937e-07    157.2716085395323
                   0                    0                    0                    0 5.970580693132268e-07    157.3461842973596 0.001393441879055907   -23.35068136353806

!
                2.84  0.00265442093807236                    0                    0                    0 1.99392821508558e-68   -7.862594851122387 1.991018123084197e-68   -7.831248515901395
                   0                    0  0.00265442093807236                    0 1.99392821508558e-68   -7.862594851122387 1.991018123084197e-68   -7.831248515901395
                   0                    0                    0                    0 0.001406687335714488   -22.82892038923539 6.023076545272612e-07    156.6622699143374
                   0                    0                    0                    0 6.012182644558741e-07    156.7332730291822  0.00140050260589513   -22.80434609745928

!
                2.85  0.00265442093807236                    0                    0                    0 1.99911850282045e-68   -7.708517497389697 1.996208562935988e-68   -7.675875573288097
                   0                    0  0.00265442093807236                    0 1.99911850282045e-68   -7.708517497389697 1.996208562935988e-68   -7.675875573288097
                   0                    0                    0                    0   0.0014139895070472   -22.29980711211341 6.064726823260535e-07    156.0507695111479
                   0                    0                    0                    0 6.053901352074123e-07    156.1182103879519 0.001407784958285554   -22.26993006875777

!
                2.86  0.00265442093807236                    0                    0                    0 1.603478432814417e-68   -7.557773814194793 1.601151259537471e-68   -7.523839633091084
                   0                    0  0.00265442093807236                    0 1.603478432814417e-68   -7.557773814194793 1.601151259537471e-68   -7.523839633091084
                   0                    0                    0                    0 0.001421502738259728   -21.78261538677448 6.106461026138151e-07    155.4371243366236
                   0                    0                    0                    0 6.095726061000643e-07    155.5010217235843 0.001415281253604497   -21.74749432838875

!
                2.87  0.00265442093807236                    0                    0                    0 1.607692143730999e-68   -7.410354978321137 1.605366412004596e-68   -7.375132243117277
                   0                    0  0.00265442093807236                    0 1.607692143730999e-68   -7.410354978321137 1.605366412004596e-68   -7.375132243117277
                   0                    0                    0                    0 0.001429219399672272   -21.27738331257941 6.148269682703686e-07    154.8213528043831
                   0                    0                    0                    0 6.137645980143084e-07    154.8817328746122 0.001422983837255037   -21.23708121998394

!
                2.88  0.00265442093807236                    0                    0                    0 1.611934612927202e-68   -7.266251208591493 1.60961098989742e-68   -7.229744140810578
                   0                    0  0.00265442093807236                    0 1.611934612927202e-68   -7.266251208591493 1.60961098989742e-68   -7.229744140810578
                   0                    0                    0                    0 0.001437131898878637   -20.78413148234846 6.190143198264127e-07    154.2034743661115
                   0                    0                    0                    0 6.179650365040786e-07    154.2603704909853 0.001430885088689286    -20.7387156463428

!
                2.89  0.00265442093807236                    0                    0                    0 1.616204516898746e-68   -7.125451831731047 1.613883670931909e-68   -7.087665315833929
                   0                    0  0.00265442093807236                    0 1.616204516898746e-68   -7.125451831731047 1.613883670931909e-68   -7.087665315833929
                   0                    0                    0                    0 0.001445232691474785   -20.30286398751898 6.232072053778024e-07    153.5835098835307
                   0                    0                    0                    0 6.221728515501025e-07    153.6369618628104 0.001438977429008405   -20.25240609562095

!
                 2.9  0.00265442093807236                    0                    0                    0 1.620500529957294e-68   -6.987945431761552 1.618183132747423e-68   -6.948884744214604
                   0                    0  0.00265442093807236                    0 1.620500529957294e-68   -6.987945431761552 1.618183132747423e-68   -6.948884744214604
                   0                    0                    0                    0 0.001453514288855154   -19.83356969070625 6.274046758511022e-07     152.961481459594
                   0                    0                    0                    0 6.263869755671245e-07     153.011535011908 0.001447253334644986   -19.77814466937811

!
                2.91  0.00265442093807236                    0                    0                    0 1.624821324175001e-68   -6.853719829283879 1.622508051614431e-68   -6.813390710377394
                   0                    0  0.00265442093807236                    0 1.624821324175001e-68   -6.853719829283879 1.622508051614431e-68   -6.813390710377394
                   0                    0                    0                    0 0.001461969264108513   -19.37622301666765 6.316057748107052e-07    152.3374119824335
                   0                    0                    0                    0 6.306063487485109e-07    152.3841184593644 0.001455705346239523   -19.31590885953822

!
                2.92  0.00265442093807236                    0                    0                    0 1.629165571221978e-68    -6.72276189246396 1.626857101651887e-68   -6.681170651640336
                   0                    0  0.00265442093807236                    0 1.629165571221978e-68    -6.72276189246396 1.626857101651887e-68   -6.681170651640336
                   0                    0                    0                    0 0.001470590259388256   -18.93078424481113 6.358095564165208e-07    151.7113258065167
                   0                    0                    0                    0 6.348299071182081e-07    151.7547413387611 0.001464326070252781   -18.86566200027824

!
                2.93  0.00265442093807236                    0                    0                    0 1.633531941265276e-68   -6.595057865853375 1.631228955670668e-68   -6.552211274441745
                   0                    0  0.00265442093807236                    0 1.633531941265276e-68   -6.595057865853375 1.631228955670668e-68   -6.552211274441745
                   0                    0                    0                    0 0.001479369993512246   -18.49720126389902 6.400150729830717e-07     151.083247976316
                   0                    0                    0                    0 6.390565972151765e-07    151.1234332773688 0.001473108188169383   -18.42735441764989

!
                2.94  0.00265442093807236                    0                    0                    0 1.637919106396239e-68   -6.470593145643193 1.635622285744001e-68   -6.426498405469311
                   0                    0  0.00265442093807236                    0 1.637919106396239e-68   -6.470593145643193 1.635622285744001e-68   -6.426498405469311
                   0                    0                    0                    0 0.001488301271387333   -18.07540971793166 6.442213757793472e-07    150.4532046273652
                   0                    0                    0                    0 6.432853714568494e-07    150.4902246301926 0.001482044460407836   -18.00092385397044

!
                2.95  0.00265442093807236                    0                    0                    0 1.642325734181393e-68   -6.349352369291626 1.640035762550224e-68   -6.304017237496963
                   0                    0  0.00265442093807236                    0 1.642325734181393e-68   -6.349352369291626 1.640035762550224e-68   -6.304017237496963
                   0                    0                    0                    0 0.001497376973553319   -17.66533418557708 6.484275176831893e-07    149.8212227647586
                   0                    0                    0                    0 6.475151819363822e-07    149.8551460931018 0.001491127732449638   -17.58629697049187

!
                2.96  0.00265442093807236                    0                    0                    0 1.646750494068483e-68    -6.23131947103985 1.644468057760354e-68   -6.184752056399457
                   0                    0  0.00265442093807236                    0 1.646750494068483e-68    -6.23131947103985 1.644468057760354e-68   -6.184752056399457
                   0                    0                    0                    0 0.001506590075982883   -17.26688898702639 6.526325564840675e-07    149.1873303332204
                   0                    0                    0                    0 6.517449836767143e-07    149.2182288516894 0.001500350940287284   -17.18338936659037

!
                2.97  0.00265442093807236                    0                    0                    0 1.651192058099737e-68   -6.116477580338398 1.648917842019698e-68   -6.068686574421312
                   0                    0  0.00265442093807236                    0 1.651192058099737e-68   -6.116477580338398 1.648917842019698e-68   -6.068686574421312
                   0                    0                    0                    0 0.001515933653260814   -16.87997866748632 6.568355502192497e-07    148.5515560137755
                   0                    0                    0                    0 6.559737458411045e-07    148.5795047043663 0.001509707113160797   -16.79210729876154

!
                2.98  0.00265442093807236                    0                    0                    0 1.65564909687681e-68    -6.00480921719639 1.653383787466108e-68   -5.955803659313961
                   0                    0  0.00265442093807236                    0 1.65564909687681e-68    -6.00480921719639 1.653383787466108e-68   -5.955803659313961
                   0                    0                    0                    0 0.001525400873661416   -16.50449933381564 6.610355617800239e-07    147.9139294556464
                   0                    0                    0                    0 6.602004352909691e-07    147.9390057729885 0.001519189378400248   -16.41234765849029

!
                2.99  0.00265442093807236                    0                    0                    0 1.660120280577274e-68     -5.8962961067084 1.657864564975768e-68   -5.846085535592012
                   0                    0  0.00265442093807236                    0 1.660120280577274e-68     -5.8962961067084 1.657864564975768e-68   -5.846085535592012
                   0                    0                    0                    0 0.001534985000908965   -16.14033884448978 6.652316519915484e-07    147.2744808795788
                   0                    0                    0                    0 6.644240216184079e-07    147.2967645705158 0.001528790959365311   -16.04399928888715

!
                   3  0.00265442093807236                    0                    0                    0                    0                    0                    0                    0
                   0                    0  0.00265442093807236                    0                    0                    0                    0                    0
                   0                    0                    0                    0 0.001544679414037594   -15.78737789797857 6.69422885828776e-07    146.6332412150502
                   0                    0                    0                    0 6.686434903618362e-07    146.6528142251812 0.001538505190497327   -15.68694337037422

!
                3.01  0.00265442093807236                    0                    0                    0 1.669099784286812e-68   -5.688659402818508 1.666865317059666e-68    -5.63606901243939
                   0                    0  0.00265442093807236                    0 1.669099784286812e-68   -5.688659402818508 1.666865317059666e-68    -5.63606901243939
                   0                    0                    0                    0 0.001554477583471144   -15.44549048978661 6.736083320059117e-07    145.9902421598427
                   0                    0                    0                    0 6.728578214273037e-07    146.0071879416045 0.001548325504209162   -15.34105434865609

!
                3.02  0.00265442093807236                    0                    0                    0 1.67360545615315e-68   -5.589495972537558 1.67138264195418e-68   -5.535731592595361
                   0                    0  0.00265442093807236                    0 1.67360545615315e-68   -5.589495972537558 1.67138264195418e-68   -5.535731592595361
                   0                    0                    0                    0 0.001564373096377764    -15.1145446875006 6.777870601297038e-07     145.345516027088
                   0                    0                    0                    0 6.770660045972147e-07    145.3599194835353 0.001558245439239709   -15.00620040528609

!
                3.03  0.00265442093807236                    0                    0                    0 1.678119981955738e-68   -5.493408127969761 1.67590950586323e-68   -5.438481023282729
                   0                    0  0.00265442093807236                    0 1.678119981955738e-68   -5.493408127969761 1.67590950586323e-68   -5.438481023282729
                   0                    0                    0                    0 0.001574359645260403   -14.79440299625494 6.819581485223167e-07    144.6990958813153
                   0                    0                    0                    0 6.812670418906923e-07    144.7110430839341 0.001568258649958586   -14.68224438729255

!
                3.04  0.00265442093807236                    0                    0                    0 1.682642043512723e-68    -5.40037436433994 1.680444589531046e-68     -5.3442961160448
                   0                    0  0.00265442093807236                    0 1.682642043512723e-68    -5.40037436433994 1.680444589531046e-68     -5.3442961160448
                   0                    0                    0                    0 0.001584431027298042   -14.48492339019015 6.861206713231365e-07    144.0510151640536
                   0                    0                    0                    0 6.854599309045069e-07    144.0605931725662 0.001578358890900968   -14.36904392137934

!
                3.05  0.00265442093807236                    0                    0                    0 1.687170327248565e-68    -5.31037254585368 1.684986577593972e-68    -5.25315511065178
                   0                    0  0.00265442093807236                    0 1.687170327248565e-68    -5.31037254585368 1.684986577593972e-68    -5.25315511065178
                   0                    0                    0                    0  0.00159458115209484   -14.18595956940038 6.902737084577411e-07    143.4013079920474
                   0                    0                    0                    0 6.896436829224446e-07    143.4086045875179 0.001588540029116318   -14.06645239808866

!
                3.06  0.00265442093807236                    0                    0                    0 1.691703526463098e-68   -5.223379912365777 1.689534158150692e-68   -5.165035673603405
                   0                    0  0.00265442093807236                    0 1.691703526463098e-68   -5.223379912365777 1.689534158150692e-68   -5.165035673603405
                   0                    0                    0                    0 0.001604804046657626   -13.89736144215492 6.944163485342719e-07    142.7500090701189
                   0                    0                    0                    0 6.938173151952048e-07    142.7551125011008 0.001598796042364677   -13.77431947897529

!
                3.07  0.00265442093807236                    0                    0                    0 1.696240332658568e-68   -5.139373145551074 1.694086025159772e-68   -5.079914861154077
                   0                    0  0.00265442093807236                    0 1.696240332658568e-68   -5.139373145551074 1.694086025159772e-68   -5.079914861154077
                   0                    0                    0                    0 0.001615093833732651    -13.6189758782478 6.98547680940794e-07    142.0971535663606
                   0                    0                    0                    0 6.979798445535699e-07    142.1001520747292 0.001609121023667352   -13.49249144138125

!
                3.08  0.00265442093807236                    0                    0                    0 1.700779446098226e-68   -5.058328314367435 1.698640874156138e-68   -4.997769062743421
                   0                    0  0.00265442093807236                    0 1.700779446098226e-68   -5.058328314367435 1.698640874156138e-68   -4.997769062743421
                   0                    0                    0                    0 0.001625444756085113   -13.35064685160468 7.026667932733925e-07    141.4427770242877
                   0                    0                    0                    0 7.021303024599292e-07    141.4437592734274 0.001619509168970064   -13.22081153291673

!
                3.09  0.00265442093807236                    0                    0                    0 1.705319572481963e-68   -4.980221007381139 1.703197406653619e-68    -4.91857424885145
                   0                    0  0.00265442093807236                    0 1.705319572481963e-68   -4.980221007381139 1.703197406653619e-68    -4.91857424885145
                   0                    0                    0                    0  0.00163585116830806   -13.09221623365751 7.067727880113861e-07    140.7869156102225
                   0                    0                    0                    0 7.062677288363161e-07    140.7859699903748 0.001629954789329142   -12.95912096961711

!
                 3.1  0.00265442093807236                    0                    0                    0 1.709859420504403e-68   -4.905026102365568 1.707754329100133e-68   -4.842305744731001
                   0                    0  0.00265442093807236                    0 1.709859420504403e-68   -4.905026102365568 1.707754329100133e-68   -4.842305744731001
                   0                    0                    0                    0  0.00164630752672478   -12.84352359947163 7.108647667832532e-07    140.1296059738546
                   0                    0                    0                    0 7.103911602954683e-07    140.1268204985763 0.001640452304290824   -12.70725874400159

!