! Touchstone data
! Created: 02-Feb-2025 by IdEM 2024 (2024.1.0)
!
!*******************************************************
! COMMENTS
!*******************************************************
!
!  TOUCHSTONE file generated by CST MICROWAVE STUDIO
!  Date and time: Sun Feb  2 22:12:49 2025
!  Project name: MMA_UnitCell.cst
!  Parameters = {a=0.5; d=0.035; h=9; p=3; phi=0; r_1=2; r_2=2.7; s=0.2; t=0.2; theta=0; w=12}
!  Header version: 2024
!  Port assignment regex: !\s*Touchstone port\s*([0-9]+)\s*=\s*(CST MWS port|CST DES external port|CST DES block port)\s*(.+)\s* \(\"(.*)\"\)(\s*mode\s*([0-9]+))?.*
!  Touchstone port assignment:
!  Touchstone port 1 = CST MWS port Zmin ("") mode 1
!  Touchstone port 2 = CST MWS port Zmin ("") mode 2
!  Touchstone port 3 = CST MWS port Zmax ("") mode 1
!  Touchstone port 4 = CST MWS port Zmax ("") mode 2
!  S-Parameters are not renormalized. Each port impedance will be approximated by the real part at minimum frequency. The values are described via the [Reference] keyword.
!  Default impedance is overridden by [Reference]
!
!*******************************************************
!
# GHz Z MA R 1

!
                 2.7    376.7300000000001                    0                    0                    0                    0                    0                    0                    0
                   0                    0    376.7300000000001                    0                    0                    0                    0                    0
                   0                    0                    0                    0    751.3776381083688    31.41963160033582     0.30922353931725    47.88287437342274
                   0                    0                    0                    0   0.3087252316284475    47.99978681918115    754.5511640642472    31.47183783378023

!
                2.71    376.7300000000001                    0                    0                    0 5.452982789436685e-63   -159.4261906326979 5.468151243411544e-63   -159.3650037635427
                   0                    0    376.7300000000001                    0 5.452982789436685e-63   -159.4261906326979 5.468151243411544e-63   -159.3650037635427
                   0                    0                    0                    0    749.3780038733188    30.73898041849033   0.3098166560279789    45.93574633736065
                   0                    0                    0                    0   0.3092993670238527    46.05003852696407    752.5691694527994    30.78578224124894

!
                2.72    376.7300000000001                    0                    0                    0 5.450011625040119e-63    -159.900307553158 5.465333676899764e-63    -159.843284008157
                   0                    0    376.7300000000001                    0 5.450011625040119e-63    -159.900307553158 5.465333676899764e-63    -159.843284008157
                   0                    0                    0                    0    747.2128407088968    30.06752207094952    0.310264141036814    44.00472652750621
                   0                    0                    0                    0   0.3097306783915436    44.11623040632094     750.418298427876    30.10887168405796

!
                2.73    376.7300000000001                    0                    0                    0 5.445973605310094e-63   -160.3682591331174 5.461430193587929e-63   -160.3154330096202
                   0                    0    376.7300000000001                    0 5.445973605310094e-63   -160.3682591331174 5.461430193587929e-63   -160.3154330096202
                   0                    0                    0                    0    744.8889253313616    29.40560133414366   0.3105692294546301    42.09050726293398
                   0                    0                    0                    0   0.3100222827234645    42.19907427712744    748.1053609721706    29.44146045837581

!
                2.74    376.7300000000001                    0                    0                    0 5.440905365211103e-63   -160.8297266513585 5.456477554417587e-63   -160.7811232729786
                   0                    0    376.7300000000001                    0 5.440905365211103e-63   -160.8297266513585 5.456477554417587e-63   -160.7811232729786
                   0                    0                    0                    0    742.4132040936623    28.75353941702162   0.3107354983071826    40.19373571717276
                   0                    0                    0                    0   0.3101776409753744    40.29923573293819    745.6373527084634    28.78387909956792

!
                2.75    376.7300000000001                    0                    0                    0 5.434844892799128e-63   -161.2844143860447 5.450513938457283e-63   -161.2400503511039
                   0                    0    376.7300000000001                    0 5.434844892799128e-63   -161.2844143860447 5.450513938457283e-63   -161.2400503511039
                   0                    0                    0                    0    739.7927630840169    28.11163342252457   0.3107668403579553    38.31501325325127
                   0                    0                    0                    0   0.3102005246923485    38.41733344721447     743.021418728746    28.13643410075392

!
                2.76    376.7300000000001                    0                    0                    0 5.427831272397372e-63   -161.7320493243073 5.443578706557751e-63    -161.691932845099
                   0                    0    376.7300000000001                    0 5.427831272397372e-63   -161.7320493243073 5.443578706557751e-63    -161.691932845099
                   0                    0                    0                    0    737.0347874126076    27.48015688399549   0.3106674249893625    36.45489566441648
                   0                    0                    0                    0   0.3100949761281377    36.55393948917627    740.2648161508254    27.49940797940157

!
                2.77    376.7300000000001                    0                    0                    0 5.419904492988197e-63   -162.1723813187129 5.435712191614785e-63   -162.1365127249603
                   0                    0    376.7300000000001                    0 5.419904492988197e-63   -162.1723813187129 5.435712191614785e-63   -162.1365127249603
                   0                    0                    0                    0    734.1465317711709    26.85935944738269   0.3104416654064402     34.6138926312552
                   0                    0                    0                    0   0.3098652824976264    34.70957881670238    737.3748808387047    26.87305876709351

!
                2.78    376.7300000000001                    0                    0                    0 5.411105222821447e-63   -162.6051826671953 5.426955447611491e-63   -162.5735545637934
                   0                    0    376.7300000000001                    0 5.411105222821447e-63   -162.6051826671953 5.426955447611491e-63   -162.5735545637934
                   0                    0                    0                    0    731.1352859255962    26.24946744142933     0.31009417812695    32.79246885800415
                   0                    0                    0                    0   0.3095159346063751    32.88473047083202    734.3589891188009     26.2576211389702

!
                2.79    376.7300000000001                    0                    0                    0 5.401474611124023e-63   -163.0302482139814 5.417350085487453e-63   -163.0028458734216
                   0                    0    376.7300000000001                    0 5.401474611124023e-63   -163.0302482139814 5.417350085487453e-63   -163.0028458734216
                   0                    0                    0                    0    728.0083437206715    25.65068359275584   0.3096297581904317    30.99104359080424
                   0                    0                    0                    0   0.3090515980709643    31.07982714305197    731.2245330205772    25.65330570151905

!
                 2.8    376.7300000000001                    0                    0                    0 5.391054075025939e-63    -163.447394568062 5.406938009750299e-63   -163.4241962277147
                   0                    0    376.7300000000001                    0 5.391054075025939e-63    -163.447394568062 5.406938009750299e-63   -163.4241962277147
                   0                    0                    0                    0    724.7729714662136    25.06318804057644   0.3090533306904811    29.20999223168194
                   0                    0                    0                    0   0.3084770733406763    29.29525678507186     727.978879231124    25.06030026014647

!
                2.81    376.7300000000001                    0                    0                    0 5.379885132625264e-63   -163.8564598938293  5.3957612848573e-63   -163.8374372826738
                   0                    0    376.7300000000001                    0 5.379885132625264e-63   -163.8564598938293  5.3957612848573e-63   -163.8374372826738
                   0                    0                    0                    0     721.436383361517    24.48713839010357   0.3083699343278901    27.44964644449707
                   0                    0                    0                    0   0.3077972689629443    27.53136285374146    724.6293506742924    24.47876944914133

!
                2.82    376.7300000000001                    0                    0                    0 5.368009214135078e-63   -164.2573030452616 5.383861938682132e-63   -164.2424215867442
                   0                    0    376.7300000000001                    0 5.368009214135078e-63   -164.2573030452616 5.383861938682132e-63   -164.2424215867442
                   0                    0                    0                    0    718.0057140323274    23.92267077160446   0.3075846770475394    25.71029619482632
                   0                    0                    0                    0   0.3070171718095528    25.78844628248376    721.1831986850284    23.90885627686487

!
                2.83    376.7300000000001                    0                    0                    0 5.355467541007589e-63    -164.649803229453 5.371281778293689e-63   -164.6390227679249
                   0                    0    376.7300000000001                    0 5.355467541007589e-63    -164.649803229453 5.371281778293689e-63   -164.6390227679249
                   0                    0                    0                    0    714.4880025885618    23.36989996090748    0.306702718348858     23.9921898639778
                   0                    0                    0                    0   0.3061418160203546    24.06676562180512     717.647573321754    23.35068160859791

!
                2.84    376.7300000000001                    0                    0                    0 5.342300913333549e-63    -165.033859327166 5.358062247949152e-63   -165.0271341133318
                   0                    0    376.7300000000001                    0 5.342300913333549e-63    -165.033859327166 5.358062247949152e-63   -165.0271341133318
                   0                    0                    0                    0    710.8901590243368    22.82892021072939   0.3057292307105652    22.29553622252612
                   0                    0                    0                    0   0.3051762601713972    22.36653933737089    714.0295059604284    22.80434591895329

!
                2.85    376.7300000000001                    0                    0                    0 5.328549626039216e-63   -165.4093887325459 5.34424430493785e-63   -165.4066681963824
                   0                    0    376.7300000000001                    0 5.328549626039216e-63   -165.4093887325459 5.34424430493785e-63   -165.4066681963824
                   0                    0                    0                    0    707.2189568318699    22.29980651091462   0.3046693852049654    20.62050609082031
                   0                    0                    0                    0   0.3041255536776707    20.68794696762432    710.3358920406164    22.26992946755899

!
                2.86    376.7300000000001                    0                    0                    0 4.251402664432424e-63   -165.7763272804761 4.26389461106258e-63   -165.7775559928218
                   0                    0    376.7300000000001                    0 4.251402664432424e-63   -165.7763272804761 4.26389461106258e-63   -165.7775559928218
                   0                    0                    0                    0    703.4810114999394    21.78261436486639   0.3035283176691528    18.96723302987873
                   0                    0                    0                    0   0.3029947244971867     19.0311304168394     706.573468428304    21.74749330648066

!
                2.87    376.7300000000001                    0                    0                    0 4.239560734235207e-63   -166.1346276004712 4.251978954158911e-63   -166.1397462667549
                   0                    0    376.7300000000001                    0 4.239560734235207e-63   -166.1346276004712 4.251978954158911e-63   -166.1397462667549
                   0                    0                    0                    0    699.6827667383702    21.27738187299867   0.3023111176403862    17.33581589736566
                   0                    0                    0                    0   0.3017887489805322    17.39619596759479    702.7487998513511     21.2370797804032

!
                2.88    376.7300000000001                    0                    0                    0 4.227344346660005e-63   -166.4842589013235 4.239679453918917e-63   -166.4932044434174
                   0                    0    376.7300000000001                    0 4.227344346660005e-63   -166.4842589013235 4.239679453918917e-63   -166.4932044434174
                   0                    0                    0                    0    695.8304829001777    20.78412962912475   0.3010227980511646    15.72631964157901
                   0                    0                    0                    0   0.3005125381241793    15.78321576645288     698.868267684575    20.73871379311909

!
                2.89    376.7300000000001                    0                    0                    0 4.214783189060681e-63   -166.8252060314752 4.227026347910442e-63   -166.8379116449841
                   0                    0    376.7300000000001                    0 4.214783189060681e-63   -166.8252060314752 4.227026347910442e-63   -166.8379116449841
                   0                    0                    0                    0    691.9302255733103    20.30286172561318   0.2996682877042239    14.13877770476483
                   0                    0                    0                    0   0.2991709201549523    14.19222968404448    694.9380595268735    20.25240383371515

!
                 2.9    376.7300000000001                    0                    0                    0 4.201906139551628e-63   -167.1574683554799 4.214049063932582e-63   -167.1738643961759
                   0                    0    376.7300000000001                    0 4.201906139551628e-63   -167.1574683554799 4.214049063932582e-63   -167.1738643961759
                   0                    0                    0                    0    687.9878571591747    19.83356702594709   0.2982524124681531    12.57319315491921
                   0                    0                    0                    0   0.2977686233340442    12.62324670723317    690.9641574154681    19.77814200461896

!
                2.91    376.7300000000001                    0                    0                    0 4.188741221263585e-63   -167.4810589415429 4.200776160394632e-63   -167.5010731686619
                   0                    0    376.7300000000001                    0 4.188741221263585e-63   -167.4810589415429 4.200776160394632e-63   -167.5010731686619
                   0                    0                    0                    0    684.0090307738579    19.37621995568797   0.2967798771746467    11.02954079765971
                   0                    0                    0                    0   0.2963102653442734    11.07624727459056      686.95232998031    19.31590579855854

!
                2.92    376.7300000000001                    0                    0                    0 4.175315563721535e-63   -167.7960040793009 4.187235296143552e-63   -167.8195617728705
                   0                    0    376.7300000000001                    0 4.175315563721535e-63   -167.7960040793009 4.187235296143552e-63   -167.8195617728705
                   0                    0                    0                    0    679.9991847618782    18.93078079498397   0.2952552637080419    9.507768601778938
                   0                    0                    0                    0   0.2948003372147302    9.551184134023249    682.9081294237614    18.86565855045107

!
                2.93    376.7300000000001                    0                    0                    0 4.161655362398373e-63   -168.1023418529559 4.173453188618939e-63   -168.1293663236455
                   0                    0    376.7300000000001                    0 4.161655362398373e-63   -168.1023418529559 4.173453188618939e-63   -168.1293663236455
                   0                    0                    0                    0    675.9635383666814    18.49719743327432   0.2936830144697437    8.007799827240241
                   0                    0                    0                    0   0.2932431997455379    8.047985128292998    678.8368861154202    18.42735058702519

!
                2.94    376.7300000000001                    0                    0                    0 4.147785850787029e-63   -168.4001217697597 4.159455592671111e-63   -168.4305346660569
                   0                    0    376.7300000000001                    0 4.147785850787029e-63   -168.4001217697597 4.159455592671111e-63   -168.4305346660569
                   0                    0                    0                    0    671.9070877632786    18.07540551517383   0.2920674244520561    6.529533996509431
                   0                    0                    0                    0   0.2916430728517738    6.566553999336852     674.743706877095    18.00091965121262

!
                2.95    376.7300000000001                    0                    0                    0 4.133731308210615e-63   -168.6894036690705 4.145267275408734e-63   -168.7231251174167
                   0                    0    376.7300000000001                    0 4.133731308210615e-63   -168.6894036690705 4.145267275408734e-63   -168.7231251174167
                   0                    0                    0                    0    667.8346121184546    17.66532961990403   0.2904126389276386    5.072849355154458
                   0                    0                    0                    0   0.2900040291376579    5.106772683497644    670.6334732875481     17.5862924048188

!
                2.96    376.7300000000001                    0                    0                    0 4.119515020185894e-63   -168.9702569700373 4.130912005911007e-63   -169.0072061740809
                   0                    0    376.7300000000001                    0 4.119515020185894e-63   -168.9702569700373 4.130912005911007e-63   -169.0072061740809
                   0                    0                    0                    0    663.7506667472082    17.26688406815005   0.2887226467324303    3.637603767960854
                   0                    0                    0                    0   0.2883299872373426    3.668502286429791    666.5108412948298    17.18338444771402

!
                2.97    376.7300000000001                    0                    0                    0 4.105159275998713e-63   -169.2427600852158 4.116412545926982e-63   -169.2828551245598
                   0                    0    376.7300000000001                    0 4.105159275998713e-63   -169.2427600852158 4.116412545926982e-63   -169.2828551245598
                   0                    0                    0                    0    659.6595848340402    16.87997340555538   0.2870012750053987    2.223636718092407
                   0                    0                    0                    0   0.2866247135430199    2.251585408683169    662.3802429150168    16.79210203683059

!
                2.98    376.7300000000001                    0                    0                    0 4.090685380058956e-63   -169.5069992782395 4.101790650363787e-63   -169.5501577995037
                   0                    0    376.7300000000001                    0 4.090685380058956e-63   -169.5069992782395 4.101790650363787e-63   -169.5501577995037
                   0                    0                    0                    0    655.5654833430885    16.50449373936037   0.2852521902316249   0.8307708534971053
                   0                    0                    0                    0   0.2848918137649158    0.855847170839163    658.2458877423472    16.41234206403501

!
                2.99    376.7300000000001                    0                    0                    0 4.076113660630926e-63     -169.76306828712 4.087067076928964e-63    -169.809207455312
                   0                    0    376.7300000000001                    0 4.076113660630926e-63     -169.76306828712 4.087067076928964e-63    -169.809207455312
                   0                    0                    0                    0     651.472266460289    16.14033292836925    0.283478895128983  -0.5411869031647616
                   0                    0                    0                    0   0.2831347350681004   -0.518903212227787    654.1117681254931    16.04399337276664

!
                   3    376.7300000000001                    0                    0                    0                    0                    0                    0                    0
                   0                    0    376.7300000000001                    0                    0                    0                    0                    0
                   0                    0                    0                    0    647.3836219630288    15.78737167133055    0.281684725621684   -1.892443743245023
                   0                    0                    0                    0   0.2813567658179436   -1.872870733114005    649.9816575257267    15.68693714372619

!
                3.01    376.7300000000001                    0                    0                    0 4.046753128055974e-63   -170.2511030037121 4.057392920861412e-63   -170.3029546679981
                   0                    0    376.7300000000001                    0 4.046753128055974e-63   -170.2511030037121 4.057392920861412e-63   -170.3029546679981
                   0                    0                    0                    0    643.3030367240118    15.44548396397984   0.2798728590105692    -3.22321952752137
                   0                    0                    0                    0   0.2795610345699076   -3.206273745759547    645.8591215140904    15.34104782284932

!
                3.02    376.7300000000001                    0                    0                    0 4.032000125879172e-63   -170.4832866481833 4.042478926905876e-63   -170.5378704191035
                   0                    0    376.7300000000001                    0 4.032000125879172e-63   -170.4832866481833 4.042478926905876e-63   -170.5378704191035
                   0                    0                    0                    0    639.2337916431323    15.11453787409009   0.2780463086641591   -4.533745693535842
                   0                    0                    0                    0   0.2777505124754385   -4.519342237088546    641.7475198451281    15.00619359187557

!
                3.03    376.7300000000001                    0                    0                    0 4.017220938896585e-63   -170.7077348459548 4.027536442026065e-63   -170.7649682370019
                   0                    0    376.7300000000001                    0 4.017220938896585e-63   -170.7077348459548 4.027536442026065e-63   -170.7649682370019
                   0                    0                    0                    0     635.178972467315    14.79439590693971   0.2762079304045646   -5.824263824452462
                   0                    0                    0                    0   0.2759280171388848   -5.812316621833599     637.650008687608    14.68223729797733

!
                3.04    376.7300000000001                    0                    0                    0 4.002431162624282e-63   -170.9245680764347 4.01258140431534e-63    -170.984369266592
                   0                    0    376.7300000000001                    0 4.002431162624282e-63   -170.9245680764347 4.01258140431534e-63    -170.984369266592
                   0                    0                    0                    0    631.1414761732178    14.48491603677396   0.2743604232397701    -7.09502487779311
                   0                    0                    0                    0   0.2740962116681274   -7.085446869280529    633.5695533052744    14.36903656796316

!
                3.05    376.7300000000001                    0                    0                    0 3.987645503052021e-63   -171.1339104760632 3.997628843118538e-63    -171.196198330785
                   0                    0    376.7300000000001                    0 3.987645503052021e-63   -171.1339104760632 3.997628843118538e-63    -171.196198330785
                   0                    0                    0                    0    627.1240141769665    14.18595196375501   0.2725063334851238   -8.346287646108918
                   0                    0                    0                    0   0.2722576119323224   -8.338991050638469    629.5089293965943     14.0664447924433

!
                3.06    376.7300000000001                    0                    0                    0 3.972877795060555e-63   -171.3358893616352 3.982692908351949e-63   -171.4005834208646
                   0                    0    376.7300000000001                    0 3.972877795060555e-63   -171.3358893616352 3.982692908351949e-63   -171.4005834208646
                   0                    0                    0                    0    623.1291169608884    13.89735359618617   0.2706480592892699   -9.578317854719707
                   0                    0                    0                    0   0.2704145866600465   -9.573214423737754    625.4707304691535    13.77431163300654

!
                3.07    376.7300000000001                    0                    0                    0 3.958141061886846e-63   -171.5306345421936 3.967786891326439e-63   -171.5976553136726
                   0                    0    376.7300000000001                    0 3.958141061886846e-63   -171.5306345421936 3.967786891326439e-63   -171.5976553136726
                   0                    0                    0                    0    619.1591491203894    13.61896780386414    0.268787854604984     -10.791387188394
                   0                    0                    0                    0   0.2685693619688292   -10.78838868002536    621.4573727738596    13.49248336699758

!
                3.08    376.7300000000001                    0                    0                    0 3.943447505871397e-63   -171.7182781208256 3.952923272285484e-63   -171.7875471596408
                   0                    0    376.7300000000001                    0 3.943447505871397e-63   -171.7182781208256 3.952923272285484e-63   -171.7875471596408
                   0                    0                    0                    0    615.2163064065129    13.35063856068839   0.2669278306507421   -11.98577288210723
                   0                    0                    0                    0   0.2667240294602309   -11.98479063296751    617.4711068431149    13.22080324200044

!
                3.09    376.7300000000001                    0                    0                    0 3.928808548172192e-63   -171.8989538327358 3.938113727784477e-63   -171.9703937315219
                   0                    0    376.7300000000001                    0 3.928808548172192e-63   -171.8989538327358 3.938113727784477e-63   -171.9703937315219
                   0                    0                    0                    0    611.3026256065035    13.09220773803827   0.2650699662635509   -13.16175568212208
                   0                    0                    0                    0   0.2648805475129032   -13.16270130196979    613.5140194285783    12.95911247399787

!
                 3.1    376.7300000000001                    0                    0                    0 3.914234874317325e-63   -172.0727970077461 3.923369172105737e-63   -172.1463313892965
                   0                    0    376.7300000000001                    0 3.914234874317325e-63   -172.0727970077461 3.923369172105737e-63   -172.1463313892965
                   0                    0                    0                    0    607.4199948460611    12.84351491090251   0.2632161092683499   -14.31962037124133
                   0                    0                    0                    0   0.2630407441878676   -14.32240584651966    609.5880427505039    12.70725005543246

!